FoamFile
{
    version     2.0;
    format      ascii;
    class       polyBoundaryMesh;
    location    "constant/polyMesh";
    object      boundary;
}

3         
(
    farfield
    {
        type patch;
        nFaces 398;
        startFace 126962;
    }
    foil
    {
        type wall;
        nFaces 398;
        startFace 127360;
    }
    frontAndBack
    {
        type empty;
        nFaces 127360;
        startFace 127758;
    }
)
