FoamFile
{
    version     2.0;
    format      ascii;
    class       polyBoundaryMesh;
    location    "constant/polyMesh";
    object      boundary;
}

4         
(
    airfoil
    {
        type wall;
        nFaces 510;
        startFace 460530;
    }
    back
    {
        type empty;
        nFaces 230520;
        startFace 461040;
    }
    farfield
    {
        type patch;
        nFaces 510;
        startFace 691560;
    }
    front
    {
        type empty;
        nFaces 230520;
        startFace 692070;
    }
)
