FoamFile
{
    version     2.0;
    format      ascii;
    class       polyBoundaryMesh;
    location    "constant/polyMesh";
    object      boundary;
}

3         
(
    airfoil
    {
        type wall;
        nFaces 258;
        startFace 58566;
    }
    farfield
    {
        type patch;
        nFaces 258;
        startFace 58824;
    }
    frontAndBack
    {
        type empty;
        nFaces 58824;
        startFace 59082;
    }
)
