FoamFile
{
    version     2.0;
    format      ascii;
    class       polyBoundaryMesh;
    location    "constant/polyMesh";
    object      boundary;
}

4         
(
    airfoil
    {
        type wall;
        nFaces 319;
        startFace 94105;
    }
    back
    {
        type empty;
        nFaces 47212;
        startFace 94424;
    }
    farfield
    {
        type patch;
        nFaces 319;
        startFace 141636;
    }
    front
    {
        type empty;
        nFaces 47212;
        startFace 141955;
    }
)
