FoamFile
{
    version     2.0;
    format      ascii;
    class       polyBoundaryMesh;
    location    "constant/polyMesh";
    object      boundary;
}

4         
(
    airfoil
    {
        type wall;
        nFaces 257;
        startFace 173989;
    }
    back
    {
        type empty;
        nFaces 87123;
        startFace 174246;
    }
    farfield
    {
        type patch;
        nFaces 257;
        startFace 261369;
    }
    front
    {
        type empty;
        nFaces 87123;
        startFace 261626;
    }
)
